<?xml version="1.0" encoding="UTF-8"?>

<!-- generated on 2025-04-15 20:41:03 by Eclipse SUMO GUI Version 1.21.0
<sumoConfiguration xmlns:xsi="http://www.w3.org/2001/XMLSchema-instance" xsi:noNamespaceSchemaLocation="http://sumo.dlr.de/xsd/sumoConfiguration.xsd">

    <input>
        <net-file value="maps/city1.net.xml"/>
        <route-files value="maps/city1.rou.xml"/>
    </input>

    <output>
        <tripinfo-output value="tripinfo.xml"/>
    </output>

    <time>
        <begin value="0"/>
        <end value="200"/>
    </time>

    <report>
        <verbose value="true"/>
        <no-step-log value="true"/>
    </report>

    <traci_server>
        <remote-port value="60022"/>
    </traci_server>

</sumoConfiguration>
-->

<tripinfos xmlns:xsi="http://www.w3.org/2001/XMLSchema-instance" xsi:noNamespaceSchemaLocation="http://sumo.dlr.de/xsd/tripinfo_file.xsd">
    <tripinfo id="13" depart="13.00" departLane="-gneE14_0" departPos="5.10" departSpeed="0.00" departDelay="0.00" arrival="23.00" arrivalLane="-gneE14_0" arrivalPos="89.60" arrivalSpeed="14.27" duration="10.00" routeLength="84.50" waitingTime="0.00" waitingCount="0" stopTime="0.00" timeLoss="3.61" rerouteNo="0" devices="tripinfo_13" vType="DEFAULT_VEHTYPE" speedFactor="1.09" vaporized=""/>
    <tripinfo id="4" depart="4.00" departLane="-gneE5_0" departPos="5.10" departSpeed="0.00" departDelay="0.00" arrival="75.00" arrivalLane="-gneE1_0" arrivalPos="85.60" arrivalSpeed="13.35" duration="71.00" routeLength="374.92" waitingTime="29.00" waitingCount="2" stopTime="0.00" timeLoss="42.28" rerouteNo="0" devices="tripinfo_4" vType="DEFAULT_VEHTYPE" speedFactor="1.01" vaporized=""/>
    <tripinfo id="0" depart="0.00" departLane="gneE18_0" departPos="5.10" departSpeed="0.00" departDelay="0.00" arrival="76.00" arrivalLane="-gneE1_0" arrivalPos="85.60" arrivalSpeed="13.82" duration="76.00" routeLength="682.01" waitingTime="12.00" waitingCount="1" stopTime="0.00" timeLoss="27.64" rerouteNo="0" devices="tripinfo_0" vType="DEFAULT_VEHTYPE" speedFactor="1.06" vaporized=""/>
    <tripinfo id="27" depart="27.00" departLane="gneE19_0" departPos="5.10" departSpeed="0.00" departDelay="0.00" arrival="80.00" arrivalLane="gneE17_0" arrivalPos="92.80" arrivalSpeed="15.23" duration="53.00" routeLength="585.39" waitingTime="0.00" waitingCount="0" stopTime="0.00" timeLoss="13.91" rerouteNo="0" devices="tripinfo_27" vType="DEFAULT_VEHTYPE" speedFactor="1.16" vaporized=""/>
    <tripinfo id="56" depart="56.00" departLane="gneE0_0" departPos="5.10" departSpeed="0.00" departDelay="0.00" arrival="91.00" arrivalLane="-gneE20_0" arrivalPos="92.80" arrivalSpeed="14.60" duration="35.00" routeLength="284.16" waitingTime="4.00" waitingCount="1" stopTime="0.00" timeLoss="15.00" rerouteNo="0" devices="tripinfo_56" vType="DEFAULT_VEHTYPE" speedFactor="1.09" vaporized=""/>
    <tripinfo id="90" depart="90.00" departLane="gneE23_0" departPos="5.10" departSpeed="0.00" departDelay="0.00" arrival="100.00" arrivalLane="gneE23_0" arrivalPos="89.60" arrivalSpeed="14.12" duration="10.00" routeLength="84.50" waitingTime="0.00" waitingCount="0" stopTime="0.00" timeLoss="3.07" rerouteNo="0" devices="tripinfo_90" vType="DEFAULT_VEHTYPE" speedFactor="1.02" vaporized=""/>
    <tripinfo id="97" depart="97.00" departLane="-gneE6_0" departPos="5.10" departSpeed="0.00" departDelay="0.00" arrival="138.00" arrivalLane="gneE34_0" arrivalPos="85.60" arrivalSpeed="14.38" duration="41.00" routeLength="282.33" waitingTime="8.00" waitingCount="1" stopTime="0.00" timeLoss="19.91" rerouteNo="0" devices="tripinfo_97" vType="DEFAULT_VEHTYPE" speedFactor="1.06" vaporized=""/>
    <tripinfo id="73" depart="73.00" departLane="gneE10_0" departPos="5.10" departSpeed="0.00" departDelay="0.00" arrival="143.00" arrivalLane="gneE26_0" arrivalPos="92.80" arrivalSpeed="13.32" duration="70.00" routeLength="491.90" waitingTime="22.00" waitingCount="1" stopTime="0.00" timeLoss="33.98" rerouteNo="0" devices="tripinfo_73" vType="DEFAULT_VEHTYPE" speedFactor="1.00" vaporized=""/>
    <tripinfo id="20" depart="20.00" departLane="gneE22_0" departPos="5.10" departSpeed="0.00" departDelay="0.00" arrival="157.00" arrivalLane="-gneE10_0" arrivalPos="96.80" arrivalSpeed="12.47" duration="137.00" routeLength="579.33" waitingTime="75.00" waitingCount="2" stopTime="0.00" timeLoss="91.20" rerouteNo="0" devices="tripinfo_20" vType="DEFAULT_VEHTYPE" speedFactor="0.93" vaporized=""/>
    <tripinfo id="25" depart="25.00" departLane="-gneE34_0" departPos="5.10" departSpeed="0.00" departDelay="0.00" arrival="158.00" arrivalLane="-gneE22_0" arrivalPos="85.60" arrivalSpeed="9.45" duration="133.00" routeLength="580.18" waitingTime="64.00" waitingCount="2" stopTime="0.00" timeLoss="86.70" rerouteNo="0" devices="tripinfo_25" vType="DEFAULT_VEHTYPE" speedFactor="0.94" vaporized=""/>
    <tripinfo id="121" depart="121.00" departLane="gneE1_0" departPos="5.10" departSpeed="0.00" departDelay="0.00" arrival="163.00" arrivalLane="gneE5_0" arrivalPos="85.60" arrivalSpeed="11.21" duration="42.00" routeLength="374.92" waitingTime="0.00" waitingCount="0" stopTime="0.00" timeLoss="6.77" rerouteNo="0" devices="tripinfo_121" vType="DEFAULT_VEHTYPE" speedFactor="0.83" vaporized=""/>
    <tripinfo id="136" depart="137.00" departLane="gneE2_0" departPos="5.10" departSpeed="0.00" departDelay="1.00" arrival="167.00" arrivalLane="gneE6_0" arrivalPos="92.80" arrivalSpeed="11.66" duration="30.00" routeLength="287.70" waitingTime="0.00" waitingCount="0" stopTime="0.00" timeLoss="6.30" rerouteNo="0" devices="tripinfo_136" vType="DEFAULT_VEHTYPE" speedFactor="0.89" vaporized=""/>
    <tripinfo id="9" depart="9.00" departLane="gneE3_0" departPos="5.10" departSpeed="0.00" departDelay="0.00" arrival="169.00" arrivalLane="-gneE0_0" arrivalPos="92.80" arrivalSpeed="12.18" duration="160.00" routeLength="671.38" waitingTime="81.00" waitingCount="2" stopTime="0.00" timeLoss="102.38" rerouteNo="0" devices="tripinfo_9" vType="DEFAULT_VEHTYPE" speedFactor="0.89" vaporized=""/>
    <tripinfo id="47" depart="47.00" departLane="-gneE13_0" departPos="5.10" departSpeed="0.00" departDelay="0.00" arrival="169.00" arrivalLane="-gneE38_0" arrivalPos="296.80" arrivalSpeed="15.88" duration="122.00" routeLength="490.87" waitingTime="75.00" waitingCount="1" stopTime="0.00" timeLoss="90.62" rerouteNo="0" devices="tripinfo_47" vType="DEFAULT_VEHTYPE" speedFactor="1.17" vaporized=""/>
    <tripinfo id="124" depart="124.00" departLane="gneE2_0" departPos="5.10" departSpeed="0.00" departDelay="0.00" arrival="170.00" arrivalLane="-gneE3_0" arrivalPos="185.60" arrivalSpeed="14.17" duration="46.00" routeLength="480.08" waitingTime="2.00" waitingCount="1" stopTime="0.00" timeLoss="13.01" rerouteNo="0" devices="tripinfo_124" vType="DEFAULT_VEHTYPE" speedFactor="1.09" vaporized=""/>
    <tripinfo id="87" depart="87.00" departLane="gneE3_0" departPos="5.10" departSpeed="0.00" departDelay="0.00" arrival="172.00" arrivalLane="-gneE21_0" arrivalPos="87.62" arrivalSpeed="11.31" duration="85.00" routeLength="576.83" waitingTime="18.00" waitingCount="2" stopTime="0.00" timeLoss="37.02" rerouteNo="0" devices="tripinfo_87" vType="DEFAULT_VEHTYPE" speedFactor="0.91" vaporized=""/>
    <tripinfo id="11" depart="11.00" departLane="-gneE32_0" departPos="5.10" departSpeed="0.00" departDelay="0.00" arrival="174.00" arrivalLane="-gneE19_0" arrivalPos="92.80" arrivalSpeed="11.89" duration="163.00" routeLength="1010.21" waitingTime="49.00" waitingCount="2" stopTime="0.00" timeLoss="75.32" rerouteNo="0" devices="tripinfo_11" vType="DEFAULT_VEHTYPE" speedFactor="0.86" vaporized=""/>
    <tripinfo id="10" depart="12.00" departLane="gneE3_0" departPos="5.10" departSpeed="0.00" departDelay="2.00" arrival="180.00" arrivalLane="gneE24_0" arrivalPos="85.60" arrivalSpeed="5.72" duration="168.00" routeLength="669.65" waitingTime="86.00" waitingCount="3" stopTime="0.00" timeLoss="114.52" rerouteNo="0" devices="tripinfo_10" vType="DEFAULT_VEHTYPE" speedFactor="0.94" vaporized=""/>
    <tripinfo id="103" depart="103.00" departLane="-gneE4_0" departPos="5.10" departSpeed="0.00" departDelay="0.00" arrival="180.00" arrivalLane="-gneE11_0" arrivalPos="92.80" arrivalSpeed="4.52" duration="77.00" routeLength="781.52" waitingTime="0.00" waitingCount="0" stopTime="0.00" timeLoss="19.33" rerouteNo="0" devices="tripinfo_103" vType="DEFAULT_VEHTYPE" speedFactor="1.01" vaporized=""/>
    <tripinfo id="52" depart="52.00" departLane="-gneE29_0" departPos="5.10" departSpeed="0.00" departDelay="0.00" arrival="183.00" arrivalLane="gneE21_0" arrivalPos="87.62" arrivalSpeed="8.47" duration="131.00" routeLength="413.15" waitingTime="88.00" waitingCount="1" stopTime="0.00" timeLoss="102.58" rerouteNo="0" devices="tripinfo_52" vType="DEFAULT_VEHTYPE" speedFactor="1.10" vaporized=""/>
    <tripinfo id="76" depart="76.00" departLane="-gneE6_0" departPos="5.10" departSpeed="0.00" departDelay="0.00" arrival="183.00" arrivalLane="gneE10_0" arrivalPos="96.80" arrivalSpeed="14.97" duration="107.00" routeLength="596.03" waitingTime="37.00" waitingCount="2" stopTime="0.00" timeLoss="67.70" rerouteNo="0" devices="tripinfo_76" vType="DEFAULT_VEHTYPE" speedFactor="1.14" vaporized=""/>
    <tripinfo id="55" depart="55.00" departLane="gneE38_0" departPos="5.10" departSpeed="0.00" departDelay="0.00" arrival="187.00" arrivalLane="-gneE25_0" arrivalPos="92.80" arrivalSpeed="13.03" duration="132.00" routeLength="880.23" waitingTime="48.00" waitingCount="1" stopTime="0.00" timeLoss="63.07" rerouteNo="0" devices="tripinfo_55" vType="DEFAULT_VEHTYPE" speedFactor="0.96" vaporized=""/>
    <tripinfo id="57" depart="58.00" departLane="gneE4_0" departPos="5.10" departSpeed="0.00" departDelay="1.00" arrival="188.00" arrivalLane="gneE34_0" arrivalPos="85.60" arrivalSpeed="13.51" duration="130.00" routeLength="664.18" waitingTime="53.00" waitingCount="2" stopTime="0.00" timeLoss="80.61" rerouteNo="0" devices="tripinfo_57" vType="DEFAULT_VEHTYPE" speedFactor="1.04" vaporized=""/>
    <tripinfo id="164" depart="170.00" departLane="gneE3_0" departPos="5.10" departSpeed="0.00" departDelay="6.00" arrival="196.00" arrivalLane="gneE34_0" arrivalPos="85.60" arrivalSpeed="15.28" duration="26.00" routeLength="280.29" waitingTime="0.00" waitingCount="0" stopTime="0.00" timeLoss="6.87" rerouteNo="0" devices="tripinfo_164" vType="DEFAULT_VEHTYPE" speedFactor="1.10" vaporized=""/>
    <tripinfo id="131" depart="132.00" departLane="-gneE34_0" departPos="5.10" departSpeed="0.00" departDelay="1.00" arrival="212.00" arrivalLane="-gneE2_0" arrivalPos="185.60" arrivalSpeed="4.83" duration="80.00" routeLength="375.13" waitingTime="36.00" waitingCount="2" stopTime="0.00" timeLoss="51.20" rerouteNo="0" devices="tripinfo_131" vType="DEFAULT_VEHTYPE" speedFactor="0.96" vaporized=""/>
    <tripinfo id="161" depart="164.00" departLane="gneE3_0" departPos="5.10" departSpeed="0.00" departDelay="3.00" arrival="218.00" arrivalLane="gneE36_0" arrivalPos="292.80" arrivalSpeed="12.92" duration="54.00" routeLength="582.12" waitingTime="0.00" waitingCount="0" stopTime="0.00" timeLoss="9.66" rerouteNo="0" devices="tripinfo_161" vType="DEFAULT_VEHTYPE" speedFactor="0.99" vaporized=""/>
    <tripinfo id="113" depart="113.00" departLane="gneE0_0" departPos="5.10" departSpeed="0.00" departDelay="0.00" arrival="219.00" arrivalLane="gneE33_0" arrivalPos="98.02" arrivalSpeed="14.07" duration="106.00" routeLength="1108.40" waitingTime="0.00" waitingCount="0" stopTime="0.00" timeLoss="25.98" rerouteNo="0" devices="tripinfo_113" vType="DEFAULT_VEHTYPE" speedFactor="1.04" vaporized=""/>
    <tripinfo id="94" depart="94.00" departLane="-gneE24_0" departPos="5.10" departSpeed="0.00" departDelay="0.00" arrival="223.00" arrivalLane="-gneE6_0" arrivalPos="92.80" arrivalSpeed="8.10" duration="129.00" routeLength="380.39" waitingTime="77.00" waitingCount="2" stopTime="0.00" timeLoss="99.61" rerouteNo="0" devices="tripinfo_94" vType="DEFAULT_VEHTYPE" speedFactor="0.97" vaporized=""/>
    <tripinfo id="111" depart="120.00" departLane="gneE10_0" departPos="5.10" departSpeed="0.00" departDelay="9.00" arrival="225.00" arrivalLane="gneE27_0" arrivalPos="92.80" arrivalSpeed="12.54" duration="105.00" routeLength="486.53" waitingTime="48.00" waitingCount="2" stopTime="0.00" timeLoss="67.79" rerouteNo="0" devices="tripinfo_111" vType="DEFAULT_VEHTYPE" speedFactor="0.98" vaporized=""/>
    <tripinfo id="118" depart="118.00" departLane="gneE38_0" departPos="5.10" departSpeed="0.00" departDelay="0.00" arrival="229.00" arrivalLane="-gneE24_0" arrivalPos="85.60" arrivalSpeed="6.66" duration="111.00" routeLength="683.56" waitingTime="34.00" waitingCount="1" stopTime="0.00" timeLoss="53.59" rerouteNo="0" devices="tripinfo_118" vType="DEFAULT_VEHTYPE" speedFactor="0.89" vaporized=""/>
    <tripinfo id="160" depart="160.00" departLane="gneE35_0" departPos="5.10" departSpeed="0.00" departDelay="0.00" arrival="229.00" arrivalLane="gneE8_0" arrivalPos="85.60" arrivalSpeed="13.88" duration="69.00" routeLength="776.75" waitingTime="0.00" waitingCount="0" stopTime="0.00" timeLoss="11.35" rerouteNo="0" devices="tripinfo_160" vType="DEFAULT_VEHTYPE" speedFactor="1.00" vaporized=""/>
    <tripinfo id="38" depart="38.00" departLane="gneE4_0" departPos="5.10" departSpeed="0.00" departDelay="0.00" arrival="231.00" arrivalLane="-gneE7_0" arrivalPos="92.80" arrivalSpeed="7.36" duration="193.00" routeLength="587.17" waitingTime="105.00" waitingCount="5" stopTime="0.00" timeLoss="144.03" rerouteNo="0" devices="tripinfo_38" vType="DEFAULT_VEHTYPE" speedFactor="0.92" vaporized=""/>
    <tripinfo id="17" depart="17.00" departLane="-gneE36_0" departPos="5.10" departSpeed="0.00" departDelay="0.00" arrival="233.00" arrivalLane="gneE12_0" arrivalPos="85.60" arrivalSpeed="9.95" duration="216.00" routeLength="687.49" waitingTime="134.00" waitingCount="3" stopTime="0.00" timeLoss="171.01" rerouteNo="0" devices="tripinfo_17" vType="DEFAULT_VEHTYPE" speedFactor="1.12" vaporized=""/>
    <tripinfo id="51" depart="51.00" departLane="gneE20_0" departPos="5.10" departSpeed="0.00" departDelay="0.00" arrival="237.00" arrivalLane="gneE11_0" arrivalPos="92.80" arrivalSpeed="15.94" duration="186.00" routeLength="584.16" waitingTime="135.00" waitingCount="1" stopTime="0.00" timeLoss="148.96" rerouteNo="0" devices="tripinfo_51" vType="DEFAULT_VEHTYPE" speedFactor="1.18" vaporized=""/>
    <tripinfo id="19" depart="19.00" departLane="gneE35_0" departPos="5.10" departSpeed="0.00" departDelay="0.00" arrival="240.00" arrivalLane="gneE13_0" arrivalPos="92.80" arrivalSpeed="13.06" duration="221.00" routeLength="789.32" waitingTime="134.00" waitingCount="3" stopTime="0.00" timeLoss="162.41" rerouteNo="0" devices="tripinfo_19" vType="DEFAULT_VEHTYPE" speedFactor="0.99" vaporized=""/>
    <tripinfo id="26" depart="26.00" departLane="-gneE29_0" departPos="5.10" departSpeed="0.00" departDelay="0.00" arrival="245.00" arrivalLane="gneE5_0" arrivalPos="85.60" arrivalSpeed="8.21" duration="219.00" routeLength="707.67" waitingTime="131.00" waitingCount="2" stopTime="0.00" timeLoss="161.60" rerouteNo="0" devices="tripinfo_26" vType="DEFAULT_VEHTYPE" speedFactor="0.94" vaporized=""/>
    <tripinfo id="85" depart="93.00" departLane="gneE5_0" departPos="5.10" departSpeed="0.00" departDelay="8.00" arrival="245.00" arrivalLane="gneE13_0" arrivalPos="92.80" arrivalSpeed="12.57" duration="152.00" routeLength="287.49" waitingTime="109.00" waitingCount="1" stopTime="0.00" timeLoss="128.76" rerouteNo="0" devices="tripinfo_85" vType="DEFAULT_VEHTYPE" speedFactor="0.94" vaporized=""/>
    <tripinfo id="71" depart="71.00" departLane="-gneE28_0" departPos="5.10" departSpeed="0.00" departDelay="0.00" arrival="249.00" arrivalLane="gneE34_0" arrivalPos="85.60" arrivalSpeed="14.87" duration="178.00" routeLength="699.16" waitingTime="102.00" waitingCount="2" stopTime="0.00" timeLoss="130.15" rerouteNo="0" devices="tripinfo_71" vType="DEFAULT_VEHTYPE" speedFactor="1.10" vaporized=""/>
    <tripinfo id="74" depart="74.00" departLane="-gneE24_0" departPos="5.10" departSpeed="0.00" departDelay="0.00" arrival="249.00" arrivalLane="-gneE3_0" arrivalPos="185.60" arrivalSpeed="11.54" duration="175.00" routeLength="674.81" waitingTime="97.00" waitingCount="2" stopTime="0.00" timeLoss="118.31" rerouteNo="0" devices="tripinfo_74" vType="DEFAULT_VEHTYPE" speedFactor="0.90" vaporized=""/>
    <tripinfo id="129" depart="129.00" departLane="-gneE28_0" departPos="5.10" departSpeed="0.00" departDelay="0.00" arrival="249.00" arrivalLane="gneE5_0" arrivalPos="85.60" arrivalSpeed="11.25" duration="120.00" routeLength="604.32" waitingTime="42.00" waitingCount="2" stopTime="0.00" timeLoss="78.92" rerouteNo="0" devices="tripinfo_129" vType="DEFAULT_VEHTYPE" speedFactor="1.10" vaporized=""/>
    <tripinfo id="169" depart="169.00" departLane="-gneE7_0" departPos="5.10" departSpeed="0.00" departDelay="0.00" arrival="252.00" arrivalLane="-gneE3_0" arrivalPos="185.60" arrivalSpeed="14.29" duration="83.00" routeLength="475.02" waitingTime="31.00" waitingCount="1" stopTime="0.00" timeLoss="48.96" rerouteNo="0" devices="tripinfo_169" vType="DEFAULT_VEHTYPE" speedFactor="1.06" vaporized=""/>
    <tripinfo id="8" depart="8.00" departLane="-gneE26_0" departPos="5.10" departSpeed="0.00" departDelay="0.00" arrival="253.00" arrivalLane="gneE14_0" arrivalPos="89.60" arrivalSpeed="13.47" duration="245.00" routeLength="391.59" waitingTime="200.00" waitingCount="2" stopTime="0.00" timeLoss="216.86" rerouteNo="0" devices="tripinfo_8" vType="DEFAULT_VEHTYPE" speedFactor="1.05" vaporized=""/>
    <tripinfo id="184" depart="184.00" departLane="-gneE1_0" departPos="5.10" departSpeed="0.00" departDelay="0.00" arrival="253.00" arrivalLane="gneE5_0" arrivalPos="85.60" arrivalSpeed="16.71" duration="69.00" routeLength="469.76" waitingTime="20.00" waitingCount="1" stopTime="0.00" timeLoss="39.58" rerouteNo="0" devices="tripinfo_184" vType="DEFAULT_VEHTYPE" speedFactor="1.23" vaporized=""/>
    <tripinfo id="125" depart="125.00" departLane="-gneE31_0" departPos="5.10" departSpeed="0.00" departDelay="0.00" arrival="255.00" arrivalLane="gneE28_0" arrivalPos="216.45" arrivalSpeed="13.80" duration="130.00" routeLength="503.77" waitingTime="78.00" waitingCount="1" stopTime="0.00" timeLoss="93.57" rerouteNo="0" devices="tripinfo_125" vType="DEFAULT_VEHTYPE" speedFactor="1.06" vaporized=""/>
    <tripinfo id="24" depart="24.00" departLane="gneE18_0" departPos="5.10" departSpeed="0.00" departDelay="0.00" arrival="265.00" arrivalLane="-gneE35_0" arrivalPos="292.80" arrivalSpeed="12.06" duration="241.00" routeLength="889.00" waitingTime="141.00" waitingCount="2" stopTime="0.00" timeLoss="164.48" rerouteNo="0" devices="tripinfo_24" vType="DEFAULT_VEHTYPE" speedFactor="0.88" vaporized=""/>
    <tripinfo id="33" depart="33.00" departLane="-gneE26_0" departPos="5.10" departSpeed="0.00" departDelay="0.00" arrival="265.00" arrivalLane="-gneE10_0" arrivalPos="96.80" arrivalSpeed="10.33" duration="232.00" routeLength="491.90" waitingTime="171.00" waitingCount="2" stopTime="0.00" timeLoss="188.93" rerouteNo="0" devices="tripinfo_33" vType="DEFAULT_VEHTYPE" speedFactor="0.83" vaporized=""/>
    <tripinfo id="54" depart="57.00" departLane="-gneE7_0" departPos="5.10" departSpeed="0.00" departDelay="3.00" arrival="265.00" arrivalLane="gneE7_0" arrivalPos="92.80" arrivalSpeed="10.32" duration="208.00" routeLength="964.38" waitingTime="97.00" waitingCount="3" stopTime="0.00" timeLoss="137.70" rerouteNo="0" devices="tripinfo_54" vType="DEFAULT_VEHTYPE" speedFactor="1.03" vaporized=""/>
    <tripinfo id="194" depart="197.00" departLane="gneE6_0" departPos="5.10" departSpeed="0.00" departDelay="3.00" arrival="274.00" arrivalLane="gneE23_0" arrivalPos="89.60" arrivalSpeed="15.11" duration="77.00" routeLength="284.60" waitingTime="46.00" waitingCount="1" stopTime="0.00" timeLoss="58.54" rerouteNo="0" devices="tripinfo_194" vType="DEFAULT_VEHTYPE" speedFactor="1.16" vaporized=""/>
    <tripinfo id="105" depart="105.00" departLane="-gneE28_0" departPos="5.10" departSpeed="0.00" departDelay="0.00" arrival="278.00" arrivalLane="gneE3_0" arrivalPos="185.60" arrivalSpeed="14.02" duration="173.00" routeLength="993.79" waitingTime="67.00" waitingCount="2" stopTime="0.00" timeLoss="100.81" rerouteNo="0" devices="tripinfo_105" vType="DEFAULT_VEHTYPE" speedFactor="1.03" vaporized=""/>
    <tripinfo id="53" depart="53.00" departLane="-gneE18_0" departPos="5.10" departSpeed="0.00" departDelay="0.00" arrival="286.00" arrivalLane="-gneE5_0" arrivalPos="85.60" arrivalSpeed="7.76" duration="233.00" routeLength="275.23" waitingTime="192.00" waitingCount="2" stopTime="0.00" timeLoss="210.24" rerouteNo="0" devices="tripinfo_53" vType="DEFAULT_VEHTYPE" speedFactor="0.90" vaporized=""/>
    <tripinfo id="88" depart="88.00" departLane="-gneE17_0" departPos="5.10" departSpeed="0.00" departDelay="0.00" arrival="288.00" arrivalLane="-gneE5_0" arrivalPos="85.60" arrivalSpeed="9.65" duration="200.00" routeLength="182.33" waitingTime="170.00" waitingCount="1" stopTime="0.00" timeLoss="185.01" rerouteNo="0" devices="tripinfo_88" vType="DEFAULT_VEHTYPE" speedFactor="0.91" vaporized=""/>
    <tripinfo id="263" depart="263.00" departLane="gneE6_0" departPos="5.10" departSpeed="0.00" departDelay="0.00" arrival="289.00" arrivalLane="-gneE21_0" arrivalPos="87.62" arrivalSpeed="14.83" duration="26.00" routeLength="282.41" waitingTime="0.00" waitingCount="0" stopTime="0.00" timeLoss="5.79" rerouteNo="0" devices="tripinfo_263" vType="DEFAULT_VEHTYPE" speedFactor="1.08" vaporized=""/>
    <tripinfo id="127" depart="129.00" departLane="gneE9_0" departPos="5.10" departSpeed="0.00" departDelay="2.00" arrival="290.00" arrivalLane="gneE9_0" arrivalPos="89.60" arrivalSpeed="7.16" duration="161.00" routeLength="84.50" waitingTime="144.00" waitingCount="1" stopTime="0.00" timeLoss="154.04" rerouteNo="0" devices="tripinfo_127" vType="DEFAULT_VEHTYPE" speedFactor="0.91" vaporized=""/>
    <tripinfo id="138" depart="138.00" departLane="-gneE17_0" departPos="5.10" departSpeed="0.00" departDelay="0.00" arrival="292.00" arrivalLane="gneE12_0" arrivalPos="85.60" arrivalSpeed="5.20" duration="154.00" routeLength="187.49" waitingTime="121.00" waitingCount="2" stopTime="0.00" timeLoss="139.84" rerouteNo="0" devices="tripinfo_138" vType="DEFAULT_VEHTYPE" speedFactor="1.01" vaporized=""/>
    <tripinfo id="15" depart="15.00" departLane="gneE3_0" departPos="5.10" departSpeed="0.00" departDelay="0.00" arrival="299.00" arrivalLane="gneE26_0" arrivalPos="92.80" arrivalSpeed="12.97" duration="284.00" routeLength="782.22" waitingTime="182.00" waitingCount="4" stopTime="0.00" timeLoss="227.84" rerouteNo="0" devices="tripinfo_15" vType="DEFAULT_VEHTYPE" speedFactor="1.03" vaporized=""/>
    <tripinfo id="30" depart="30.00" departLane="gneE9_0" departPos="5.10" departSpeed="0.00" departDelay="0.00" arrival="299.00" arrivalLane="gneE2_0" arrivalPos="185.60" arrivalSpeed="7.96" duration="269.00" routeLength="379.13" waitingTime="226.00" waitingCount="1" stopTime="0.00" timeLoss="240.07" rerouteNo="0" devices="tripinfo_30" vType="DEFAULT_VEHTYPE" speedFactor="0.97" vaporized=""/>
    <tripinfo id="240" depart="240.00" departLane="-gneE36_0" departPos="5.10" departSpeed="0.00" departDelay="0.00" arrival="300.00" arrivalLane="-gneE0_0" arrivalPos="92.80" arrivalSpeed="13.56" duration="60.00" routeLength="689.32" waitingTime="0.00" waitingCount="0" stopTime="0.00" timeLoss="8.99" rerouteNo="0" devices="tripinfo_240" vType="DEFAULT_VEHTYPE" speedFactor="1.00" vaporized=""/>
    <tripinfo id="50" depart="50.00" departLane="-gneE1_0" departPos="5.10" departSpeed="0.00" departDelay="0.00" arrival="301.00" arrivalLane="gneE26_0" arrivalPos="92.80" arrivalSpeed="13.42" duration="251.00" routeLength="876.85" waitingTime="143.00" waitingCount="3" stopTime="0.00" timeLoss="183.50" rerouteNo="0" devices="tripinfo_50" vType="DEFAULT_VEHTYPE" speedFactor="0.97" vaporized=""/>
    <tripinfo id="60" depart="60.00" departLane="gneE25_0" departPos="5.10" departSpeed="0.00" departDelay="0.00" arrival="304.00" arrivalLane="gneE11_0" arrivalPos="92.80" arrivalSpeed="14.17" duration="244.00" routeLength="589.00" waitingTime="171.00" waitingCount="3" stopTime="0.00" timeLoss="202.27" rerouteNo="0" devices="tripinfo_60" vType="DEFAULT_VEHTYPE" speedFactor="1.09" vaporized=""/>
    <tripinfo id="78" depart="78.00" departLane="-gneE32_0" departPos="5.10" departSpeed="0.00" departDelay="0.00" arrival="308.00" arrivalLane="gneE14_0" arrivalPos="89.60" arrivalSpeed="13.48" duration="230.00" routeLength="912.38" waitingTime="123.00" waitingCount="4" stopTime="0.00" timeLoss="164.32" rerouteNo="0" devices="tripinfo_78" vType="DEFAULT_VEHTYPE" speedFactor="1.02" vaporized=""/>
    <tripinfo id="145" depart="145.00" departLane="-gneE1_0" departPos="5.10" departSpeed="0.00" departDelay="0.00" arrival="308.00" arrivalLane="gneE29_0" arrivalPos="98.02" arrivalSpeed="11.43" duration="163.00" routeLength="991.32" waitingTime="51.00" waitingCount="1" stopTime="0.00" timeLoss="75.63" rerouteNo="0" devices="tripinfo_145" vType="DEFAULT_VEHTYPE" speedFactor="0.87" vaporized=""/>
    <tripinfo id="102" depart="102.00" departLane="-gneE9_0" departPos="5.10" departSpeed="0.00" departDelay="0.00" arrival="310.00" arrivalLane="-gneE22_0" arrivalPos="85.60" arrivalSpeed="7.62" duration="208.00" routeLength="681.83" waitingTime="134.00" waitingCount="3" stopTime="0.00" timeLoss="156.48" rerouteNo="0" devices="tripinfo_102" vType="DEFAULT_VEHTYPE" speedFactor="0.98" vaporized=""/>
    <tripinfo id="93" depart="93.00" departLane="gneE35_0" departPos="5.10" departSpeed="0.00" departDelay="0.00" arrival="316.00" arrivalLane="-gneE24_0" arrivalPos="85.60" arrivalSpeed="13.37" duration="223.00" routeLength="982.01" waitingTime="129.00" waitingCount="2" stopTime="0.00" timeLoss="151.60" rerouteNo="0" devices="tripinfo_93" vType="DEFAULT_VEHTYPE" speedFactor="1.02" vaporized=""/>
    <tripinfo id="167" depart="167.00" departLane="gneE35_0" departPos="5.10" departSpeed="0.00" departDelay="0.00" arrival="320.00" arrivalLane="gneE33_0" arrivalPos="98.02" arrivalSpeed="14.17" duration="153.00" routeLength="1208.40" waitingTime="36.00" waitingCount="2" stopTime="0.00" timeLoss="64.96" rerouteNo="0" devices="tripinfo_167" vType="DEFAULT_VEHTYPE" speedFactor="1.03" vaporized=""/>
    <tripinfo id="182" depart="182.00" departLane="-gneE36_0" departPos="5.10" departSpeed="0.00" departDelay="0.00" arrival="320.00" arrivalLane="gneE13_0" arrivalPos="92.80" arrivalSpeed="12.18" duration="138.00" routeLength="794.48" waitingTime="50.00" waitingCount="2" stopTime="0.00" timeLoss="76.17" rerouteNo="0" devices="tripinfo_182" vType="DEFAULT_VEHTYPE" speedFactor="0.96" vaporized=""/>
    <tripinfo id="264" depart="264.00" departLane="-gneE10_0" departPos="5.10" departSpeed="0.00" departDelay="0.00" arrival="320.00" arrivalLane="-gneE19_0" arrivalPos="92.80" arrivalSpeed="13.00" duration="56.00" routeLength="290.87" waitingTime="13.00" waitingCount="1" stopTime="0.00" timeLoss="31.87" rerouteNo="0" devices="tripinfo_264" vType="DEFAULT_VEHTYPE" speedFactor="0.94" vaporized=""/>
    <tripinfo id="104" depart="104.00" departLane="-gneE36_0" departPos="5.10" departSpeed="0.00" departDelay="0.00" arrival="324.00" arrivalLane="gneE9_0" arrivalPos="89.60" arrivalSpeed="14.92" duration="220.00" routeLength="978.40" waitingTime="119.00" waitingCount="3" stopTime="0.00" timeLoss="152.41" rerouteNo="0" devices="tripinfo_104" vType="DEFAULT_VEHTYPE" speedFactor="1.09" vaporized=""/>
    <tripinfo id="86" depart="86.00" departLane="-gneE8_0" departPos="5.10" departSpeed="0.00" departDelay="0.00" arrival="325.00" arrivalLane="gneE3_0" arrivalPos="185.60" arrivalSpeed="12.07" duration="239.00" routeLength="375.13" waitingTime="191.00" waitingCount="1" stopTime="0.00" timeLoss="207.55" rerouteNo="0" devices="tripinfo_86" vType="DEFAULT_VEHTYPE" speedFactor="0.88" vaporized=""/>
    <tripinfo id="28" depart="28.00" departLane="-gneE22_0" departPos="5.10" departSpeed="0.00" departDelay="0.00" arrival="326.00" arrivalLane="gneE26_0" arrivalPos="92.80" arrivalSpeed="14.13" duration="298.00" routeLength="787.27" waitingTime="205.00" waitingCount="4" stopTime="0.00" timeLoss="240.29" rerouteNo="0" devices="tripinfo_28" vType="DEFAULT_VEHTYPE" speedFactor="1.02" vaporized=""/>
    <tripinfo id="139" depart="139.00" departLane="-gneE29_0" departPos="5.10" departSpeed="0.00" departDelay="0.00" arrival="326.00" arrivalLane="gneE17_0" arrivalPos="92.80" arrivalSpeed="13.10" duration="187.00" routeLength="814.66" waitingTime="87.00" waitingCount="3" stopTime="0.00" timeLoss="126.06" rerouteNo="0" devices="tripinfo_139" vType="DEFAULT_VEHTYPE" speedFactor="1.03" vaporized=""/>
    <tripinfo id="168" depart="168.00" departLane="-gneE26_0" departPos="5.10" departSpeed="0.00" departDelay="0.00" arrival="326.00" arrivalLane="gneE31_0" arrivalPos="94.82" arrivalSpeed="13.82" duration="158.00" routeLength="478.36" waitingTime="103.00" waitingCount="2" stopTime="0.00" timeLoss="122.19" rerouteNo="0" devices="tripinfo_168" vType="DEFAULT_VEHTYPE" speedFactor="1.02" vaporized=""/>
    <tripinfo id="7" depart="7.00" departLane="gneE19_0" departPos="5.10" departSpeed="0.00" departDelay="0.00" arrival="327.00" arrivalLane="gneE11_0" arrivalPos="92.80" arrivalSpeed="11.15" duration="320.00" routeLength="678.58" waitingTime="241.00" waitingCount="1" stopTime="0.00" timeLoss="257.91" rerouteNo="0" devices="tripinfo_7" vType="DEFAULT_VEHTYPE" speedFactor="0.83" vaporized=""/>
    <tripinfo id="163" depart="163.00" departLane="-gneE32_0" departPos="5.10" departSpeed="0.00" departDelay="0.00" arrival="328.00" arrivalLane="gneE5_0" arrivalPos="85.60" arrivalSpeed="12.26" duration="165.00" routeLength="708.38" waitingTime="76.00" waitingCount="2" stopTime="0.00" timeLoss="108.66" rerouteNo="0" devices="tripinfo_163" vType="DEFAULT_VEHTYPE" speedFactor="0.94" vaporized=""/>